# USER_LATT cell with dimension 1 x 1 x 1 and a = 1
      2884  atoms
         2  atom types

 0.    66.59157904720385  xlo xhi
 0.    57.66999913299809  ylo yhi
 0.    60.00000000000000  zlo zhi
  -33.28578952360195     0.00000000000000     0.00000000000000 xy xz yz

Atoms

1 1   -31.17150891599350    56.39022106624639    30.00000000000000
2 1   -29.73992850651825    56.36355902318905    30.00000000000000
3 1   -29.09340832159394    52.63087299516329    30.00000000000000
4 1   -27.66182791211867    52.60421095210597    30.00000000000000
5 1   -29.04722830838505    55.11044299949471    30.00000000000000
6 1   -27.61564789890980    55.08378095643737    30.00000000000000
7 1   -29.00104829517618    57.59001300382610    30.00000000000000
8 1   -27.56946788570092    57.56335096076876    30.00000000000000
9 1   -27.01530772719437    48.87152492408021    30.00000000000000
10 1   -25.58372731771911    48.84486288102288    30.00000000000000
11 1   -26.96912771398549    51.35109492841160    30.00000000000000
12 1   -25.53754730451023    51.32443288535428    30.00000000000000
13 1   -26.92294770077661    53.83066493274301    30.00000000000000
14 1   -25.49136729130137    53.80400288968569    30.00000000000000
15 1   -26.87676768756775    56.31023493707439    30.00000000000000
16 1   -25.44518727809247    56.28357289401708    30.00000000000000
17 1   -24.93720713279479    45.11217685299711    30.00000000000000
18 1   -23.50562672331954    45.08551480993978    30.00000000000000
19 1   -24.89102711958592    47.59174685732851    30.00000000000000
20 1   -23.45944671011066    47.56508481427119    30.00000000000000
21 1   -24.84484710637703    50.07131686165992    30.00000000000000
22 1   -23.41326669690178    50.04465481860260    30.00000000000000
23 1   -24.79866709316817    52.55088686599131    30.00000000000000
24 1   -23.36708668369291    52.52422482293399    30.00000000000000
25 1   -24.75248707995930    55.03045687032270    30.00000000000000
26 1   -23.32090667048404    55.00379482726539    30.00000000000000
27 1   -24.70630706675041    57.51002687465412    30.00000000000000
28 1   -23.27472665727515    57.48336483159679    30.00000000000000
29 1   -22.85910653839524    41.35282878191401    30.00000000000000
30 1   -21.42752612891998    41.32616673885668    30.00000000000000
31 1   -22.81292652518636    43.83239878624541    30.00000000000000
32 1   -21.38134611571110    43.80573674318809    30.00000000000000
33 1   -22.76674651197748    46.31196879057683    30.00000000000000
34 1   -21.33516610250222    46.28530674751948    30.00000000000000
35 1   -22.72056649876860    48.79153879490822    30.00000000000000
36 1   -21.28898608929334    48.76487675185089    30.00000000000000
37 1   -22.67438648555972    51.27110879923963    30.00000000000000
38 1   -21.24280607608445    51.24444675618231    30.00000000000000
39 1   -22.62820647235085    53.75067880357102    30.00000000000000
40 1   -21.19662606287559    53.72401676051369    30.00000000000000
41 1   -22.58202645914196    56.23024880790243    30.00000000000000
42 1   -21.15044604966671    56.20358676484509    30.00000000000000
43 1   -20.78100594399567    37.59348071083093    30.00000000000000
44 1   -19.34942553452040    37.56681866777361    30.00000000000000
45 1   -20.73482593078680    40.07305071516232    30.00000000000000
46 1   -19.30324552131154    40.04638867210500    30.00000000000000
47 1   -20.68864591757792    42.55262071949374    30.00000000000000
48 1   -19.25706550810266    42.52595867643641    30.00000000000000
49 1   -20.64246590436902    45.03219072382513    30.00000000000000
50 1   -19.21088549489377    45.00552868076780    30.00000000000000
51 1   -20.59628589116016    47.51176072815653    30.00000000000000
52 1   -19.16470548168489    47.48509868509921    30.00000000000000
53 1   -20.55010587795127    49.99133073248795    30.00000000000000
54 1   -19.11852546847602    49.96466868943061    30.00000000000000
55 1   -20.50392586474239    52.47090073681933    30.00000000000000
56 1   -19.07234545526715    52.44423869376200    30.00000000000000
57 1   -20.45774585153352    54.95047074115074    30.00000000000000
58 1   -19.02616544205826    54.92380869809340    30.00000000000000
59 1   -20.41156583832464    57.43004074548215    30.00000000000000
60 1   -18.97998542884939    57.40337870242480    30.00000000000000
61 1   -18.70290534959611    33.83413263974782    30.00000000000000
62 1   -17.27132494012084    33.80747059669050    30.00000000000000
63 1   -18.65672533638723    36.31370264407924    30.00000000000000
64 1   -17.22514492691197    36.28704060102191    30.00000000000000
65 1   -18.61054532317835    38.79327264841063    30.00000000000000
66 1   -17.17896491370309    38.76661060535331    30.00000000000000
67 1   -18.56436530996947    41.27284265274204    30.00000000000000
68 1   -17.13278490049420    41.24618060968471    30.00000000000000
69 1   -18.51818529676059    43.75241265707344    30.00000000000000
70 1   -17.08660488728533    43.72575061401611    30.00000000000000
71 1   -18.47200528355171    46.23198266140484    30.00000000000000
72 1   -17.04042487407645    46.20532061834752    30.00000000000000
73 1   -18.42582527034283    48.71155266573624    30.00000000000000
74 1   -16.99424486086758    48.68489062267891    30.00000000000000
75 1   -18.37964525713395    51.19112267006765    30.00000000000000
76 1   -16.94806484765870    51.16446062701031    30.00000000000000
77 1   -18.33346524392507    53.67069267439905    30.00000000000000
78 1   -16.90188483444982    53.64403063134172    30.00000000000000
79 1   -18.28728523071620    56.15026267873044    30.00000000000000
80 1   -16.85570482124094    56.12360063567310    30.00000000000000
81 1   -16.62480475519653    30.07478456866474    30.00000000000000
82 1   -15.19322434572128    30.04812252560742    30.00000000000000
83 1   -16.57862474198766    32.55435457299615    30.00000000000000
84 1   -15.14704433251240    32.52769252993882    30.00000000000000
85 1   -16.53244472877879    35.03392457732754    30.00000000000000
86 1   -15.10086431930352    35.00726253427022    30.00000000000000
87 1   -16.48626471556990    37.51349458165895    30.00000000000000
88 1   -15.05468430609465    37.48683253860161    30.00000000000000
89 1   -16.44008470236102    39.99306458599035    30.00000000000000
90 1   -15.00850429288577    39.96640254293303    30.00000000000000
91 1   -16.39390468915215    42.47263459032175    30.00000000000000
92 1   -14.96232427967689    42.44597254726442    30.00000000000000
93 1   -16.34772467594327    44.95220459465315    30.00000000000000
94 1   -14.91614426646802    44.92554255159583    30.00000000000000
95 1   -16.30154466273439    47.43177459898455    30.00000000000000
96 1   -14.86996425325913    47.40511255592723    30.00000000000000
97 1   -16.25536464952552    49.91134460331595    30.00000000000000
98 1   -14.82378424005027    49.88468256025862    30.00000000000000
99 1   -16.20918463631664    52.39091460764735    30.00000000000000
100 1   -14.77760422684138    52.36425256459002    30.00000000000000
101 1   -16.16300462310776    54.87048461197875    30.00000000000000
102 1   -14.73142421363250    54.84382256892143    30.00000000000000
103 1   -16.11682460989887    57.35005461631016    30.00000000000000
104 1   -14.68524420042360    57.32339257325283    30.00000000000000
105 1   -14.54670416079697    26.31543649758165    30.00000000000000
106 1   -13.11512375132171    26.28877445452433    30.00000000000000
107 1   -14.50052414758810    28.79500650191305    30.00000000000000
108 1   -13.06894373811284    28.76834445885573    30.00000000000000
109 1   -14.45434413437922    31.27457650624444    30.00000000000000
110 1   -13.02276372490396    31.24791446318712    30.00000000000000
111 1   -14.40816412117033    33.75414651057586    30.00000000000000
112 1   -12.97658371169508    33.72748446751854    30.00000000000000
113 1   -14.36198410796147    36.23371651490725    30.00000000000000
114 1   -12.93040369848621    36.20705447184992    30.00000000000000
115 1   -14.31580409475258    38.71328651923866    30.00000000000000
116 1   -12.88422368527732    38.68662447618134    30.00000000000000
117 1   -14.26962408154370    41.19285652357006    30.00000000000000
118 1   -12.83804367206845    41.16619448051272    30.00000000000000
119 1   -14.22344406833482    43.67242652790146    30.00000000000000
120 1   -12.79186365885956    43.64576448484414    30.00000000000000
121 1   -14.17726405512595    46.15199653223286    30.00000000000000
122 1   -12.74568364565068    46.12533448917554    30.00000000000000
123 1   -14.13108404191707    48.63156653656426    30.00000000000000
124 1   -12.69950363244181    48.60490449350693    30.00000000000000
125 1   -14.08490402870819    51.11113654089566    30.00000000000000
126 1   -12.65332361923293    51.08447449783834    30.00000000000000
127 1   -14.03872401549932    53.59070654522706    30.00000000000000
128 1   -12.60714360602406    53.56404450216974    30.00000000000000
129 1   -13.99254400229045    56.07027654955845    30.00000000000000
130 1   -12.56096359281517    56.04361450650115    30.00000000000000
131 1   -12.46860356639740    22.55608842649855    30.00000000000000
132 1   -11.03702315692214    22.52942638344123    30.00000000000000
133 1   -12.42242355318852    25.03565843082995    30.00000000000000
134 1   -10.99084314371327    25.00899638777263    30.00000000000000
135 1   -12.37624353997965    27.51522843516135    30.00000000000000
136 1   -10.94466313050439    27.48856639210403    30.00000000000000
137 1   -12.33006352677077    29.99479843949275    30.00000000000000
138 1   -10.89848311729551    29.96813639643543    30.00000000000000
139 1   -12.28388351356189    32.47436844382416    30.00000000000000
140 1   -10.85230310408664    32.44770640076683    30.00000000000000
141 1   -12.23770350035301    34.95393844815556    30.00000000000000
142 1   -10.80612309087776    34.92727640509824    30.00000000000000
143 1   -12.19152348714413    37.43350845248696    30.00000000000000
144 1   -10.75994307766887    37.40684640942964    30.00000000000000
145 1   -12.14534347393525    39.91307845681837    30.00000000000000
146 1   -10.71376306446001    39.88641641376103    30.00000000000000
147 1   -12.09916346072637    42.39264846114978    30.00000000000000
148 1   -10.66758305125112    42.36598641809245    30.00000000000000
149 1   -12.05298344751750    44.87221846548118    30.00000000000000
150 1   -10.62140303804225    44.84555642242383    30.00000000000000
151 1   -12.00680343430861    47.35178846981258    30.00000000000000
152 1   -10.57522302483336    47.32512642675525    30.00000000000000
153 1   -11.96062342109975    49.83135847414397    30.00000000000000
154 1   -10.52904301162448    49.80469643108665    30.00000000000000
155 1   -11.91444340789086    52.31092847847537    30.00000000000000
156 1   -10.48286299841562    52.28426643541804    30.00000000000000
157 1   -11.86826339468197    54.79049848280678    30.00000000000000
158 1   -10.43668298520672    54.76383643974945    30.00000000000000
159 1   -11.82208338147310    57.27006848713818    30.00000000000000
160 1   -10.39050297199785    57.24340644408084    30.00000000000000
161 1   -10.39050297199783    18.79674035541547    30.00000000000000
162 1    -8.95892256252258    18.77007831235814    30.00000000000000
163 1   -10.34432295878896    21.27631035974687    30.00000000000000
164 1    -8.91274254931370    21.24964831668954    30.00000000000000
165 1   -10.29814294558008    23.75588036407827    30.00000000000000
166 1    -8.86656253610482    23.72921832102094    30.00000000000000
167 1   -10.25196293237120    26.23545036840967    30.00000000000000
168 1    -8.82038252289595    26.20878832535234    30.00000000000000
169 1   -10.20578291916232    28.71502037274108    30.00000000000000
170 1    -8.77420250968706    28.68835832968374    30.00000000000000
171 1   -10.15960290595344    31.19459037707247    30.00000000000000
172 1    -8.72802249647819    31.16792833401514    30.00000000000000
173 1   -10.11342289274457    33.67416038140386    30.00000000000000
174 1    -8.68184248326931    33.64749833834654    30.00000000000000
175 1   -10.06724287953568    36.15373038573527    30.00000000000000
176 1    -8.63566247006043    36.12706834267795    30.00000000000000
177 1   -10.02106286632680    38.63330039006668    30.00000000000000
178 1    -8.58948245685155    38.60663834700934    30.00000000000000
179 1    -9.97488285311793    41.11287039439808    30.00000000000000
180 1    -8.54330244364267    41.08620835134077    30.00000000000000
181 1    -9.92870283990905    43.59244039872948    30.00000000000000
182 1    -8.49712243043379    43.56577835567216    30.00000000000000
183 1    -9.88252282670018    46.07201040306089    30.00000000000000
184 1    -8.45094241722493    46.04534836000356    30.00000000000000
185 1    -9.83634281349130    48.55158040739229    30.00000000000000
186 1    -8.40476240401605    48.52491836433495    30.00000000000000
187 1    -9.79016280028241    51.03115041172368    30.00000000000000
188 1    -8.35858239080717    51.00448836866634    30.00000000000000
189 1    -9.74398278707353    53.51072041605509    30.00000000000000
190 1    -8.31240237759829    53.48405837299775    30.00000000000000
191 1    -9.69780277386466    55.99029042038649    30.00000000000000
192 1    -8.26622236438941    55.96362837732916    30.00000000000000
193 1    -8.31240237759827    15.03739228433237    30.00000000000000
194 1    -6.88082196812301    15.01073024127504    30.00000000000000
195 1    -8.26622236438939    17.51696228866377    30.00000000000000
196 1    -6.83464195491413    17.49030024560645    30.00000000000000
197 1    -8.22004235118051    19.99653229299517    30.00000000000000
198 1    -6.78846194170526    19.96987024993785    30.00000000000000
199 1    -8.17386233797163    22.47610229732658    30.00000000000000
200 1    -6.74228192849638    22.44944025426926    30.00000000000000
201 1    -8.12768232476276    24.95567230165797    30.00000000000000
202 1    -6.69610191528750    24.92901025860064    30.00000000000000
203 1    -8.08150231155388    27.43524230598938    30.00000000000000
204 1    -6.64992190207862    27.40858026293205    30.00000000000000
205 1    -8.03532229834499    29.91481231032078    30.00000000000000
206 1    -6.60374188886973    29.88815026726346    30.00000000000000
207 1    -7.98914228513612    32.39438231465218    30.00000000000000
208 1    -6.55756187566086    32.36772027159485    30.00000000000000
209 1    -7.94296227192724    34.87395231898358    30.00000000000000
210 1    -6.51138186245198    34.84729027592626    30.00000000000000
211 1    -7.89678225871836    37.35352232331498    30.00000000000000
212 1    -6.46520184924311    37.32686028025765    30.00000000000000
213 1    -7.85060224550949    39.83309232764638    30.00000000000000
214 1    -6.41902183603424    39.80643028458906    30.00000000000000
215 1    -7.80442223230061    42.31266233197779    30.00000000000000
216 1    -6.37284182282535    42.28600028892046    30.00000000000000
217 1    -7.75824221909173    44.79223233630918    30.00000000000000
218 1    -6.32666180961647    44.76557029325186    30.00000000000000
219 1    -7.71206220588285    47.27180234064058    30.00000000000000
220 1    -6.28048179640759    47.24514029758326    30.00000000000000
221 1    -7.66588219267397    49.75137234497199    30.00000000000000
222 1    -6.23430178319872    49.72471030191465    30.00000000000000
223 1    -7.61970217946510    52.23094234930339    30.00000000000000
224 1    -6.18812176998985    52.20428030624606    30.00000000000000
225 1    -7.57352216625621    54.71051235363480    30.00000000000000
226 1    -6.14194175678096    54.68385031057746    30.00000000000000
227 1    -7.52734215304734    57.19008235796618    30.00000000000000
228 1    -6.09576174357208    57.16342031490885    30.00000000000000
229 1    -6.23430178319870    11.27804421324928    30.00000000000000
230 1    -4.80272137372344    11.25138217019195    30.00000000000000
231 1    -6.18812176998983    13.75761421758068    30.00000000000000
232 1    -4.75654136051456    13.73095217452335    30.00000000000000
233 1    -6.14194175678095    16.23718422191208    30.00000000000000
234 1    -4.71036134730569    16.21052217885475    30.00000000000000
235 1    -6.09576174357207    18.71675422624348    30.00000000000000
236 1    -4.66418133409681    18.69009218318615    30.00000000000000
237 1    -6.04958173036319    21.19632423057489    30.00000000000000
238 1    -4.61800132088792    21.16966218751756    30.00000000000000
239 1    -6.00340171715430    23.67589423490629    30.00000000000000
240 1    -4.57182130767905    23.64923219184896    30.00000000000000
241 1    -5.95722170394543    26.15546423923768    30.00000000000000
242 1    -4.52564129447018    26.12880219618036    30.00000000000000
243 1    -5.91104169073656    28.63503424356909    30.00000000000000
244 1    -4.47946128126130    28.60837220051176    30.00000000000000
245 1    -5.86486167752768    31.11460424790048    30.00000000000000
246 1    -4.43328126805242    31.08794220484316    30.00000000000000
247 1    -5.81868166431879    33.59417425223189    30.00000000000000
248 1    -4.38710125484353    33.56751220917457    30.00000000000000
249 1    -5.77250165110991    36.07374425656329    30.00000000000000
250 1    -4.34092124163467    36.04708221350596    30.00000000000000
251 1    -5.72632163790104    38.55331426089470    30.00000000000000
252 1    -4.29474122842577    38.52665221783737    30.00000000000000
253 1    -5.68014162469216    41.03288426522611    30.00000000000000
254 1    -4.24856121521691    41.00622222216877    30.00000000000000
255 1    -5.63396161148328    43.51245426955749    30.00000000000000
256 1    -4.20238120200803    43.48579222650016    30.00000000000000
257 1    -5.58778159827440    45.99202427388889    30.00000000000000
258 1    -4.15620118879914    45.96536223083157    30.00000000000000
259 1    -5.54160158506552    48.47159427822029    30.00000000000000
260 1    -4.11002117559027    48.44493223516297    30.00000000000000
261 1    -5.49542157185665    50.95116428255171    30.00000000000000
262 1    -4.06384116238139    50.92450223949438    30.00000000000000
263 1    -5.44924155864777    53.43073428688310    30.00000000000000
264 1    -4.01766114917253    53.40407224382577    30.00000000000000
265 1    -5.40306154543889    55.91030429121451    30.00000000000000
266 1    -3.97148113596364    55.88364224815717    30.00000000000000
267 1    -4.15620118879913     7.51869614216619    30.00000000000000
268 1    -2.72462077932388     7.49203409910886    30.00000000000000
269 1    -4.11002117559026     9.99826614649759    30.00000000000000
270 1    -2.67844076611500     9.97160410344026    30.00000000000000
271 1    -4.06384116238138    12.47783615082899    30.00000000000000
272 1    -2.63226075290613    12.45117410777166    30.00000000000000
273 1    -4.01766114917250    14.95740615516039    30.00000000000000
274 1    -2.58608073969724    14.93074411210306    30.00000000000000
275 1    -3.97148113596362    17.43697615949179    30.00000000000000
276 1    -2.53990072648837    17.41031411643447    30.00000000000000
277 1    -3.92530112275474    19.91654616382319    30.00000000000000
278 1    -2.49372071327949    19.88988412076586    30.00000000000000
279 1    -3.87912110954586    22.39611616815459    30.00000000000000
280 1    -2.44754070007061    22.36945412509727    30.00000000000000
281 1    -3.83294109633698    24.87568617248600    30.00000000000000
282 1    -2.40136068686173    24.84902412942867    30.00000000000000
283 1    -3.78676108312811    27.35525617681740    30.00000000000000
284 1    -2.35518067365286    27.32859413376006    30.00000000000000
285 1    -3.74058106991923    29.83482618114879    30.00000000000000
286 1    -2.30900066044398    29.80816413809147    30.00000000000000
287 1    -3.69440105671035    32.31439618548020    30.00000000000000
288 1    -2.26282064723510    32.28773414242287    30.00000000000000
289 1    -3.64822104350147    34.79396618981161    30.00000000000000
290 1    -2.21664063402622    34.76730414675428    30.00000000000000
291 1    -3.60204103029260    37.27353619414301    30.00000000000000
292 1    -2.17046062081734    37.24687415108568    30.00000000000000
293 1    -3.55586101708372    39.75310619847441    30.00000000000000
294 1    -2.12428060760847    39.72644415541707    30.00000000000000
295 1    -3.50968100387485    42.23267620280581    30.00000000000000
296 1    -2.07810059439958    42.20601415974848    30.00000000000000
297 1    -3.46350099066596    44.71224620713721    30.00000000000000
298 1    -2.03192058119070    44.68558416407988    30.00000000000000
299 1    -3.41732097745708    47.19181621146860    30.00000000000000
300 1    -1.98574056798183    47.16515416841127    30.00000000000000
301 1    -3.37114096424820    49.67138621580001    30.00000000000000
302 1    -1.93956055477296    49.64472417274268    30.00000000000000
303 1    -3.32496095103933    52.15095622013141    30.00000000000000
304 1    -1.89338054156408    52.12429417707408    30.00000000000000
305 1    -3.27878093783044    54.63052622446281    30.00000000000000
306 1    -1.84720052835519    54.60386418140548    30.00000000000000
307 1    -3.23260092462158    57.11009622879421    30.00000000000000
308 1    -1.80102051514631    57.08343418573688    30.00000000000000
309 1    -2.07810059439957     3.75934807108309    30.00000000000000
310 1    -0.64652018492431     3.73268602802576    30.00000000000000
311 1    -2.03192058119069     6.23891807541449    30.00000000000000
312 1    -0.60034017171543     6.21225603235717    30.00000000000000
313 1    -1.98574056798181     8.71848807974589    30.00000000000000
314 1    -0.55416015850656     8.69182603668857    30.00000000000000
315 1    -1.93956055477293    11.19805808407729    30.00000000000000
316 1    -0.50798014529767    11.17139604101997    30.00000000000000
317 1    -1.89338054156405    13.67762808840870    30.00000000000000
318 1    -0.46180013208880    13.65096604535137    30.00000000000000
319 1    -1.84720052835518    16.15719809274010    30.00000000000000
320 1    -0.41562011887992    16.13053604968277    30.00000000000000
321 1    -1.80102051514630    18.63676809707151    30.00000000000000
322 1    -0.36944010567104    18.61010605401417    30.00000000000000
323 1    -1.75484050193742    21.11633810140290    30.00000000000000
324 1    -0.32326009246216    21.08967605834557    30.00000000000000
325 1    -1.70866048872854    23.59590810573430    30.00000000000000
326 1    -0.27708007925328    23.56924606267697    30.00000000000000
327 1    -1.66248047551966    26.07547811006570    30.00000000000000
328 1    -0.23090006604441    26.04881606700837    30.00000000000000
329 1    -1.61630046231078    28.55504811439711    30.00000000000000
330 1    -0.18472005283552    28.52838607133978    30.00000000000000
331 1    -1.57012044910189    31.03461811872851    30.00000000000000
332 1    -0.13854003962664    31.00795607567118    30.00000000000000
333 1    -1.52394043589302    33.51418812305991    30.00000000000000
334 1    -0.09236002641777    33.48752608000258    30.00000000000000
335 1    -1.47776042268416    35.99375812739131    30.00000000000000
336 1    -0.04618001320890    35.96709608433398    30.00000000000000
337 1    -1.43158040947528    38.47332813172272    30.00000000000000
338 1    -0.00000000000001    38.44666608866539    30.00000000000000
339 1    -1.38540039626641    40.95289813605411    30.00000000000000
340 1     0.04618001320885    40.92623609299678    30.00000000000000
341 1    -1.33922038305752    43.43246814038552    30.00000000000000
342 1     0.09236002641775    43.40580609732819    30.00000000000000
343 1    -1.29304036984865    45.91203814471691    30.00000000000000
344 1     0.13854003962662    45.88537610165959    30.00000000000000
345 1    -1.24686035663976    48.39160814904832    30.00000000000000
346 1     0.18472005283549    48.36494610599099    30.00000000000000
347 1    -1.20068034343088    50.87117815337972    30.00000000000000
348 1     0.23090006604437    50.84451611032239    30.00000000000000
349 1    -1.15450033022200    53.35074815771112    30.00000000000000
350 1     0.27708007925325    53.32408611465379    30.00000000000000
351 1    -1.10832031701312    55.83031816204253    30.00000000000000
352 1     0.32326009246213    55.80365611898519    30.00000000000000
353 1     0.00000000000000     0.00000000000000    30.00000000000000
354 1   -31.86420911412668    57.64333708994076    30.00000000000000
355 1     0.04618001320888     2.47957000433140    30.00000000000000
356 1     1.47776042268413     2.45290796127407    30.00000000000000
357 1     0.09236002641775     4.95914000866280    30.00000000000000
358 1     1.52394043589301     4.93247796560548    30.00000000000000
359 1     0.13854003962664     7.43871001299421    30.00000000000000
360 1     1.57012044910189     7.41204796993688    30.00000000000000
361 1     0.18472005283551     9.91828001732560    30.00000000000000
362 1     1.61630046231077     9.89161797426828    30.00000000000000
363 1     0.23090006604440    12.39785002165701    30.00000000000000
364 1     1.66248047551965    12.37118797859968    30.00000000000000
365 1     0.27708007925327    14.87742002598841    30.00000000000000
366 1     1.70866048872853    14.85075798293108    30.00000000000000
367 1     0.32326009246215    17.35699003031981    30.00000000000000
368 1     1.75484050193741    17.33032798726249    30.00000000000000
369 1     0.36944010567102    19.83656003465121    30.00000000000000
370 1     1.80102051514628    19.80989799159388    30.00000000000000
371 1     0.41562011887990    22.31613003898261    30.00000000000000
372 1     1.84720052835516    22.28946799592529    30.00000000000000
373 1     0.46180013208879    24.79570004331401    30.00000000000000
374 1     1.89338054156403    24.76903800025669    30.00000000000000
375 1     0.50798014529766    27.27527004764541    30.00000000000000
376 1     1.93956055477291    27.24860800458809    30.00000000000000
377 1     0.55416015850654    29.75484005197682    30.00000000000000
378 1     1.98574056798180    29.72817800891950    30.00000000000000
379 1     0.60034017171542    32.23441005630822    30.00000000000000
380 1     2.03192058119068    32.20774801325089    30.00000000000000
381 1     0.64652018492429    34.71398006063963    30.00000000000000
382 1     2.07810059439955    34.68731801758231    30.00000000000000
383 1     0.69270019813317    37.19355006497103    30.00000000000000
384 1     2.12428060760842    37.16688802191369    30.00000000000000
385 1     0.73888021134204    39.67312006930242    30.00000000000000
386 1     2.17046062081730    39.64645802624509    30.00000000000000
387 1     0.78506022455093    42.15269007363383    30.00000000000000
388 1     2.21664063402618    42.12602803057651    30.00000000000000
389 1     0.83124023775981    44.63226007796522    30.00000000000000
390 1     2.26282064723507    44.60559803490789    30.00000000000000
391 1     0.87742025096869    47.11183008229663    30.00000000000000
392 1     2.30900066044394    47.08516803923931    30.00000000000000
393 1     0.92360026417757    49.59140008662803    30.00000000000000
394 1     2.35518067365281    49.56473804357069    30.00000000000000
395 1     0.96978027738644    52.07097009095943    30.00000000000000
396 1     2.40136068686169    52.04430804790210    30.00000000000000
397 1     1.01596029059532    54.55054009529083    30.00000000000000
398 1     2.44754070007058    54.52387805223351    30.00000000000000
399 1     1.06214030380420    57.03011009962224    30.00000000000000
400 1     2.49372071327945    57.00344805656490    30.00000000000000
401 1     2.17046062081732     1.19979193757971    30.00000000000000
402 1     3.60204103029258     1.17312989452239    30.00000000000000
403 1     2.21664063402620     3.67936194191111    30.00000000000000
404 1     3.64822104350146     3.65269989885378    30.00000000000000
405 1     2.26282064723508     6.15893194624252    30.00000000000000
406 1     3.69440105671033     6.13226990318519    30.00000000000000
407 1     2.30900066044395     8.63850195057391    30.00000000000000
408 1     3.74058106991921     8.61183990751659    30.00000000000000
409 1     2.35518067365284    11.11807195490532    30.00000000000000
410 1     3.78676108312809    11.09140991184799    30.00000000000000
411 1     2.40136068686171    13.59764195923672    30.00000000000000
412 1     3.83294109633697    13.57097991617939    30.00000000000000
413 1     2.44754070007059    16.07721196356812    30.00000000000000
414 1     3.87912110954585    16.05054992051080    30.00000000000000
415 1     2.49372071327947    18.55678196789952    30.00000000000000
416 1     3.92530112275472    18.53011992484219    30.00000000000000
417 1     2.53990072648834    21.03635197223092    30.00000000000000
418 1     3.97148113596361    21.00968992917359    30.00000000000000
419 1     2.58608073969723    23.51592197656232    30.00000000000000
420 1     4.01766114917248    23.48925993350499    30.00000000000000
421 1     2.63226075290611    25.99549198089373    30.00000000000000
422 1     4.06384116238136    25.96882993783639    30.00000000000000
423 1     2.67844076611498    28.47506198522513    30.00000000000000
424 1     4.11002117559025    28.44839994216780    30.00000000000000
425 1     2.72462077932386    30.95463198955653    30.00000000000000
426 1     4.15620118879912    30.92796994649919    30.00000000000000
427 1     2.77080079253274    33.43420199388794    30.00000000000000
428 1     4.20238120200800    33.40753995083061    30.00000000000000
429 1     2.81698080574161    35.91377199821934    30.00000000000000
430 1     4.24856121521688    35.88710995516201    30.00000000000000
431 1     2.86316081895049    38.39334200255073    30.00000000000000
432 1     4.29474122842575    38.36667995949340    30.00000000000000